LAMMPS data file. CGCMM style. atom_style full generated by VMD/TopoTools v1.7 on Tue Mar 29 13:49:04 EDT 2022
 15564 atoms
 1 bonds
 0 angles
 0 dihedrals
 0 impropers
 29 atom types
 1 bond types
 0 angle types
 0 dihedral types
 0 improper types
 -299.904495 300.095505  xlo xhi
 -344.236000 255.764000  ylo yhi
 -286.772995 313.227005  zlo zhi

# Pair Coeffs
#
# 1  1
# 2  10
# 3  12
# 4  13
# 5  15
# 6  16
# 7  17
# 8  18
# 9  19
# 10  2
# 11  20
# 12  21
# 13  22
# 14  23
# 15  24
# 16  25
# 17  26
# 18  27
# 19  28
# 20  29
# 21  3
# 22  30
# 23  31
# 24  33
# 25  34
# 26  4
# 27  5
# 28  6
# 29  7

# Bond Coeffs
#
# 1  

 Masses

 1 12.000000 # 1
 2 12.000000 # 10
 3 12.000000 # 12
 4 12.000000 # 13
 5 12.000000 # 15
 6 12.000000 # 16
 7 12.000000 # 17
 8 12.000000 # 18
 9 12.000000 # 19
 10 12.000000 # 2
 11 12.000000 # 20
 12 12.000000 # 21
 13 12.000000 # 22
 14 12.000000 # 23
 15 12.000000 # 24
 16 12.000000 # 25
 17 12.000000 # 26
 18 12.000000 # 27
 19 12.000000 # 28
 20 12.000000 # 29
 21 12.000000 # 3
 22 12.000000 # 30
 23 12.000000 # 31
 24 12.000000 # 33
 25 12.000000 # 34
 26 12.000000 # 4
 27 12.000000 # 5
 28 12.000000 # 6
 29 12.000000 # 7

 Atoms # full

1 1 5 0.000000 113.969002 55.126999 -25.629999 # 15 
2 1 6 0.000000 113.859001 56.872002 -22.311001 # 16 
3 1 23 0.000000 115.257004 60.294998 -21.417999 # 31 
4 1 17 0.000000 118.874001 59.616001 -22.014999 # 26 
5 1 12 0.000000 120.566002 58.861000 -25.362000 # 21 
6 1 23 0.000000 121.237999 62.584999 -24.599001 # 31 
7 1 5 0.000000 123.808998 63.108002 -21.666000 # 15 
8 1 6 0.000000 124.746002 66.605003 -22.704000 # 16 
9 1 17 0.000000 125.372002 68.040001 -19.254999 # 26 
10 1 22 0.000000 126.008003 66.336998 -15.893000 # 30 
11 1 23 0.000000 126.637001 69.441002 -13.927000 # 31 
12 1 13 0.000000 127.023003 70.733002 -10.249000 # 22 
13 1 13 0.000000 129.945007 71.849998 -8.171000 # 22 
14 1 17 0.000000 130.473999 74.063004 -11.176000 # 26 
15 1 5 0.000000 131.895004 72.260002 -14.390000 # 15 
16 1 20 0.000000 133.985992 75.121002 -15.966000 # 29 
17 1 6 0.000000 135.878998 72.089996 -17.475000 # 16 
18 1 17 0.000000 138.255005 70.814003 -20.266001 # 26 
19 1 12 0.000000 138.587997 67.097000 -19.441000 # 21 
20 1 16 0.000000 137.755005 64.035004 -21.576000 # 25 
21 1 5 0.000000 139.311996 60.464001 -21.236000 # 15 
22 1 23 0.000000 136.709000 57.959000 -20.049999 # 31 
23 1 17 0.000000 133.138000 59.304001 -20.565001 # 26 
24 1 5 0.000000 130.936996 58.755001 -23.475000 # 15 
25 1 5 0.000000 132.567993 56.186001 -25.738001 # 15 
26 1 6 0.000000 134.044006 53.139999 -23.987000 # 16 
27 1 17 0.000000 134.940002 53.573002 -20.433001 # 26 
28 1 22 0.000000 135.307999 50.417999 -18.195999 # 30 
29 1 5 0.000000 133.949005 46.965000 -19.044001 # 15 
30 1 20 0.000000 134.044006 45.769001 -22.768000 # 29 
31 1 5 0.000000 137.876007 45.951000 -21.997999 # 15 
32 1 23 0.000000 140.289993 48.808998 -22.996000 # 31 
33 1 13 0.000000 140.459000 50.897999 -26.093000 # 22 
34 1 13 0.000000 142.195007 54.216999 -26.795000 # 22 
35 1 25 0.000000 141.755005 57.596001 -28.400999 # 34 
36 1 17 0.000000 145.082993 59.334999 -27.944000 # 26 
37 1 17 0.000000 144.612000 61.313000 -31.112000 # 26 
38 1 20 0.000000 147.837997 61.444000 -32.889000 # 29 
39 1 14 0.000000 149.673004 64.539001 -34.164001 # 23 
40 1 6 0.000000 152.492004 64.811996 -31.677000 # 16 
41 1 24 0.000000 155.628998 63.941002 -33.445000 # 33 
42 1 6 0.000000 158.380997 66.454002 -32.870998 # 16 
43 1 20 0.000000 161.770004 65.139999 -34.242001 # 29 
44 1 13 0.000000 165.022995 67.144997 -34.067001 # 22 
45 1 23 0.000000 165.093994 66.531998 -37.455002 # 31 
46 1 25 0.000000 168.882004 66.161003 -37.737999 # 34 
47 1 5 0.000000 169.085999 64.293999 -34.437000 # 15 
48 1 16 0.000000 166.576004 61.695000 -35.924000 # 25 
49 1 6 0.000000 168.604996 61.518002 -39.174000 # 16 
50 1 11 0.000000 171.716003 60.740002 -36.979000 # 20 
51 1 15 0.000000 169.865997 58.073002 -35.001999 # 24 
52 1 6 0.000000 168.884003 56.345001 -38.355999 # 16 
53 1 6 0.000000 172.436996 56.643002 -39.812000 # 16 
54 1 24 0.000000 174.153000 55.207001 -36.705002 # 33 
55 1 12 0.000000 171.587006 52.498001 -36.146999 # 21 
56 1 17 0.000000 172.274002 51.306000 -39.692001 # 26 
57 1 22 0.000000 176.078995 50.952000 -39.096001 # 30 
58 1 23 0.000000 178.746994 49.876999 -37.895000 # 31 
59 1 11 0.000000 181.602997 51.120998 -37.245998 # 20 
60 1 16 0.000000 183.237000 52.129002 -33.979000 # 25 
61 1 16 0.000000 182.145996 55.706001 -32.816002 # 25 
62 1 15 0.000000 184.804993 56.578999 -30.488001 # 24 
63 1 6 0.000000 187.703995 57.186001 -32.410999 # 16 
64 1 17 0.000000 190.923004 54.591999 -32.355999 # 26 
65 1 16 0.000000 193.987000 56.783001 -30.639999 # 25 
66 1 20 0.000000 193.212997 58.817001 -26.679001 # 29 
67 1 19 0.000000 190.529007 55.298000 -26.903999 # 28 
68 1 12 0.000000 193.768005 53.609001 -26.997999 # 21 
69 1 6 0.000000 195.341995 56.151001 -24.655001 # 16 
70 1 16 0.000000 192.666000 55.917999 -21.875999 # 25 
71 1 25 0.000000 193.050003 52.172001 -21.936001 # 34 
72 1 6 0.000000 196.820999 52.349998 -21.542999 # 16 
73 1 11 0.000000 196.447998 55.082001 -18.732000 # 20 
74 1 15 0.000000 193.843994 52.799999 -16.707001 # 24 
75 1 5 0.000000 196.022003 49.744999 -17.129000 # 15 
76 1 12 0.000000 199.220993 51.599998 -15.955000 # 21 
77 1 8 0.000000 197.600998 52.214001 -12.582000 # 18 
78 1 19 0.000000 197.242004 48.097000 -12.112000 # 28 
79 1 17 0.000000 200.561005 47.286999 -13.620000 # 26 
80 1 23 0.000000 203.328003 49.445000 -15.189000 # 31 
81 1 8 0.000000 205.227997 48.897999 -18.322001 # 18 
82 1 16 0.000000 202.457001 46.805000 -20.115999 # 25 
83 1 6 0.000000 202.125000 46.214001 -23.896999 # 16 
84 1 19 0.000000 198.878006 45.483002 -25.532000 # 28 
85 1 12 0.000000 198.102005 43.319000 -28.516001 # 21 
86 1 22 0.000000 196.216003 45.564999 -31.038000 # 30 
87 1 22 0.000000 193.563004 43.603001 -30.377001 # 30 
88 1 5 0.000000 193.205994 43.518002 -27.039000 # 15 
89 1 25 0.000000 192.541000 47.195999 -27.385000 # 34 
90 1 18 0.000000 189.906998 46.498001 -30.169001 # 27 
91 1 5 0.000000 188.251999 43.930000 -28.075001 # 15 
92 1 16 0.000000 188.072998 46.532001 -25.212000 # 25 
93 1 12 0.000000 186.591995 49.138000 -27.596001 # 21 
94 1 11 0.000000 183.886002 46.945999 -29.155001 # 20 
95 1 5 0.000000 182.992996 45.861000 -25.608000 # 15 
96 1 22 0.000000 183.218994 49.167000 -24.266001 # 30 
97 1 11 0.000000 180.882996 50.269001 -27.886000 # 20 
98 1 5 0.000000 178.300995 47.966999 -27.142000 # 15 
99 1 24 0.000000 178.007004 47.698002 -22.837999 # 33 
100 1 16 0.000000 175.778000 55.130001 -22.424000 # 25 
101 1 25 0.000000 175.130997 51.990002 -26.599001 # 34 
102 1 5 0.000000 173.074997 49.655998 -24.490000 # 15 
103 1 16 0.000000 173.283005 51.667999 -21.400000 # 25 
104 1 19 0.000000 171.738007 54.806000 -23.605000 # 28 
105 1 11 0.000000 168.998001 52.707001 -24.702000 # 20 
106 1 8 0.000000 168.057999 52.033001 -21.034000 # 18 
107 1 23 0.000000 168.794998 55.683998 -20.117001 # 31 
108 1 7 0.000000 166.362000 56.806000 -22.921000 # 17 
109 1 16 0.000000 163.602005 54.548000 -21.556999 # 25 
110 1 9 0.000000 164.102005 56.263000 -18.183001 # 19 
111 1 5 0.000000 163.815002 59.749001 -19.659000 # 15 
112 1 15 0.000000 160.703995 58.833000 -21.481001 # 24 
113 1 14 0.000000 159.272995 57.243999 -18.368000 # 23 
114 1 5 0.000000 159.552002 60.692001 -16.792000 # 15 
115 1 17 0.000000 157.673004 62.237999 -19.753000 # 26 
116 1 6 0.000000 160.895004 63.785999 -21.146000 # 16 
117 1 25 0.000000 162.755997 63.326000 -24.448999 # 34 
118 1 23 0.000000 166.057999 64.644997 -23.084000 # 31 
119 1 15 0.000000 168.317001 62.223000 -21.270000 # 24 
120 1 18 0.000000 169.806000 63.429001 -18.070999 # 27 
121 1 20 0.000000 172.389008 62.124001 -15.513000 # 29 
122 1 17 0.000000 169.464005 61.092999 -13.225000 # 26 
123 1 8 0.000000 168.378998 58.669998 -16.127001 # 18 
124 1 15 0.000000 171.796005 57.088001 -16.482000 # 24 
125 1 12 0.000000 171.912003 56.758999 -12.635000 # 21 
126 1 16 0.000000 168.513000 55.265999 -12.476000 # 25 
127 1 5 0.000000 169.354996 52.683998 -15.214000 # 15 
128 1 6 0.000000 172.612000 51.719002 -13.508000 # 16 
129 1 6 0.000000 170.998993 51.313999 -10.112000 # 16 
130 1 15 0.000000 168.514008 49.176998 -11.668000 # 24 
131 1 6 0.000000 170.766998 47.071999 -13.388000 # 16 
132 1 13 0.000000 172.710007 46.433998 -10.240000 # 22 
133 1 11 0.000000 175.707993 48.431999 -11.181000 # 20 
134 1 6 0.000000 175.246994 51.115002 -8.727000 # 16 
135 1 5 0.000000 173.102005 48.987999 -6.521000 # 15 
136 2 22 0.000000 192.037003 54.868999 3.656000 # 30 
137 2 13 0.000000 192.139008 54.889999 7.479000 # 22 
138 2 6 0.000000 190.876999 58.126999 9.034000 # 16 
139 2 13 0.000000 191.694000 60.824001 11.383000 # 22 
140 2 17 0.000000 192.248001 60.875000 15.161000 # 26 
141 2 13 0.000000 195.785995 62.214001 14.508000 # 22 
142 2 13 0.000000 198.718994 64.394997 15.270000 # 22 
143 2 17 0.000000 199.699997 67.404999 13.114000 # 26 
144 2 13 0.000000 199.707001 66.726997 9.323000 # 22 
145 2 16 0.000000 197.406998 64.315002 7.704000 # 25 
146 2 13 0.000000 198.070007 60.694000 7.759000 # 22 
147 2 17 0.000000 194.768005 60.330002 6.004000 # 26 
148 2 13 0.000000 192.638000 63.111000 4.471000 # 22 
149 2 13 0.000000 189.001999 62.172001 3.936000 # 22 
150 2 5 0.000000 187.751999 65.533997 2.748000 # 15 
151 2 17 0.000000 185.798996 64.954002 -0.571000 # 26 
152 2 6 0.000000 187.005997 63.793999 -3.996000 # 16 
153 2 14 0.000000 187.867996 65.728996 -7.148000 # 23 
154 2 6 0.000000 188.153000 64.283997 -10.547000 # 16 
155 2 17 0.000000 189.839005 60.964001 -11.255000 # 26 
156 2 25 0.000000 188.839005 58.299999 -13.674000 # 34 
157 2 16 0.000000 188.686005 61.389999 -15.996000 # 25 
158 2 6 0.000000 192.298004 62.556000 -16.409000 # 16 
159 2 8 0.000000 194.729004 60.914001 -18.771000 # 18 
160 2 7 0.000000 192.858002 61.195999 -22.146000 # 17 
161 2 15 0.000000 189.192993 60.417000 -20.650000 # 24 
162 2 12 0.000000 188.630997 64.024002 -21.660000 # 21 
163 2 13 0.000000 189.550995 62.560001 -25.316000 # 22 
164 2 15 0.000000 186.516006 60.578999 -25.403999 # 24 
165 2 23 0.000000 184.755005 63.550999 -27.024000 # 31 
166 2 17 0.000000 181.205994 65.174004 -26.701000 # 26 
167 2 20 0.000000 180.701004 64.299004 -30.330999 # 29 
168 2 5 0.000000 181.675003 60.625999 -29.825001 # 15 
169 2 15 0.000000 179.339996 60.332001 -26.867001 # 24 
170 2 6 0.000000 176.531998 61.965000 -28.895000 # 16 
171 2 6 0.000000 177.076004 59.405998 -31.627001 # 16 
172 2 16 0.000000 177.069000 56.383999 -29.082001 # 25 
173 2 5 0.000000 173.738998 57.966000 -27.775000 # 15 
174 2 6 0.000000 172.300995 58.220001 -31.327000 # 16 
175 2 6 0.000000 173.067001 54.575001 -32.019001 # 16 
176 2 13 0.000000 171.300003 54.032001 -28.643999 # 22 
177 2 13 0.000000 168.201004 55.849998 -30.010000 # 22 
178 2 25 0.000000 168.615005 59.126999 -28.058001 # 34 
179 2 17 0.000000 167.235001 62.410000 -29.646999 # 26 
180 2 6 0.000000 168.031006 65.042999 -27.055000 # 16 
181 2 15 0.000000 170.938995 65.197998 -24.621000 # 24 
182 2 22 0.000000 171.488007 67.181999 -21.431999 # 30 
183 2 13 0.000000 174.319000 68.878998 -21.186001 # 22 
184 2 16 0.000000 175.675003 67.185997 -18.087999 # 25 
185 2 15 0.000000 175.479996 63.787998 -19.854000 # 24 
186 2 24 0.000000 178.994995 64.070000 -21.285999 # 33 
187 2 11 0.000000 180.809998 64.031998 -17.933001 # 20 
188 2 11 0.000000 178.529999 61.509998 -16.535999 # 20 
189 2 23 0.000000 179.207993 59.188000 -19.493000 # 31 
190 2 6 0.000000 182.936005 59.646999 -19.093000 # 16 
191 2 13 0.000000 182.699997 58.618000 -15.378000 # 22 
192 2 25 0.000000 180.744995 55.458000 -16.166000 # 34 
193 2 16 0.000000 182.832993 54.391998 -19.358999 # 25 
194 2 17 0.000000 185.962997 54.972000 -16.806999 # 26 
195 2 25 0.000000 184.462997 52.584000 -14.222000 # 34 
196 2 19 0.000000 183.695999 50.089001 -16.966000 # 28 
197 2 16 0.000000 187.175995 50.083000 -18.237000 # 25 
198 2 11 0.000000 188.621002 49.953999 -14.882000 # 20 
199 2 7 0.000000 186.716995 46.925999 -13.988000 # 17 
200 2 25 0.000000 187.427002 45.098999 -17.191999 # 34 
201 2 15 0.000000 191.076004 46.029999 -17.417999 # 24 
202 2 6 0.000000 191.399994 44.747002 -14.279000 # 16 
203 2 8 0.000000 190.723999 41.595001 -14.434000 # 18 
204 2 5 0.000000 192.431000 41.417000 -17.792000 # 15 
205 2 25 0.000000 195.705994 42.535000 -16.207001 # 34 
206 2 23 0.000000 195.067001 39.764999 -13.492000 # 31 
207 2 24 0.000000 194.970001 36.993999 -16.063000 # 33 
208 2 23 0.000000 198.048004 38.926998 -17.722000 # 31 
209 2 11 0.000000 200.093994 38.769001 -14.384000 # 20 
210 2 14 0.000000 199.139008 35.236000 -13.659000 # 23 
211 2 5 0.000000 200.455002 34.144001 -17.101999 # 15 
212 2 17 0.000000 203.597000 35.858002 -16.254000 # 26 
213 2 6 0.000000 203.044998 38.171001 -19.004000 # 16 
214 2 17 0.000000 203.962997 41.744999 -19.950001 # 26 
215 2 23 0.000000 201.559006 41.938999 -22.820999 # 31 
216 2 25 0.000000 197.789001 42.155998 -22.402000 # 34 
217 2 23 0.000000 196.263000 39.834000 -24.951000 # 31 
218 2 5 0.000000 192.873001 39.792999 -26.629999 # 15 
219 2 18 0.000000 192.195999 36.550999 -24.688999 # 27 
220 2 8 0.000000 192.889008 38.306999 -21.368000 # 18 
221 2 25 0.000000 190.294998 40.816002 -22.309999 # 34 
222 2 25 0.000000 187.910995 38.209000 -23.481001 # 34 
223 2 24 0.000000 188.197006 35.931000 -20.301001 # 33 
224 2 5 0.000000 187.806000 39.365002 -18.177000 # 15 
225 2 16 0.000000 184.699005 40.349998 -20.121000 # 25 
226 2 17 0.000000 183.449997 36.917000 -19.809999 # 26 
227 2 6 0.000000 183.570007 36.729000 -15.964000 # 16 
228 2 12 0.000000 181.979004 40.217999 -15.702000 # 21 
229 2 13 0.000000 178.854996 39.443001 -17.391001 # 22 
230 2 6 0.000000 179.837006 40.675999 -20.791000 # 16 
231 2 23 0.000000 180.848007 37.750000 -23.100000 # 31 
232 2 16 0.000000 182.285004 39.132000 -26.386000 # 25 
233 2 24 0.000000 182.369995 37.159000 -29.636000 # 33 
234 2 13 0.000000 184.875000 37.779999 -32.351002 # 22 
235 2 19 0.000000 188.020004 37.775002 -30.332001 # 28 
236 2 13 0.000000 189.056000 34.252998 -29.645000 # 22 
237 2 13 0.000000 191.574997 33.569000 -32.500999 # 22 
238 3 22 0.000000 227.244995 5.922000 22.747999 # 30 
239 3 13 0.000000 227.910004 6.256000 26.533001 # 22 
240 3 6 0.000000 224.453995 7.267000 27.952999 # 16 
241 3 13 0.000000 223.108002 7.443000 24.559999 # 22 
242 3 17 0.000000 219.957993 9.472000 25.798000 # 26 
243 3 12 0.000000 218.354996 9.522000 29.101999 # 21 
244 3 13 0.000000 214.707993 10.180000 29.671000 # 22 
245 3 13 0.000000 211.809006 12.441000 28.693001 # 22 
246 3 17 0.000000 208.026001 12.220000 28.284000 # 26 
247 3 23 0.000000 205.835999 14.294000 25.955999 # 31 
248 3 6 0.000000 207.710999 16.559999 23.582001 # 16 
249 3 5 0.000000 204.660004 18.403000 22.139000 # 15 
250 3 17 0.000000 204.091995 21.988001 23.298000 # 26 
251 3 5 0.000000 205.488007 23.872999 20.257000 # 15 
252 3 17 0.000000 204.264999 22.117001 17.191000 # 26 
253 3 23 0.000000 201.690002 19.587999 18.190001 # 31 
254 3 6 0.000000 198.132996 20.357000 17.771000 # 16 
255 3 22 0.000000 199.445007 22.561001 15.100000 # 30 
256 3 22 0.000000 196.511002 21.940001 12.565000 # 30 
257 3 6 0.000000 199.440994 22.200001 10.222000 # 16 
258 3 5 0.000000 199.070999 25.507000 8.524000 # 15 
259 3 13 0.000000 197.873001 27.236000 11.708000 # 22 
260 3 16 0.000000 194.181000 26.978001 10.707000 # 25 
261 3 12 0.000000 190.880005 26.080999 12.148000 # 21 
262 3 19 0.000000 189.287003 25.105000 8.846000 # 28 
263 3 20 0.000000 190.054993 21.577999 7.541000 # 29 
264 3 25 0.000000 192.815002 21.422001 4.804000 # 34 
265 3 13 0.000000 192.347000 18.174000 4.143000 # 22 
266 3 6 0.000000 188.638000 18.559999 3.469000 # 16 
267 3 25 0.000000 189.248001 21.117001 1.357000 # 34 
268 3 14 0.000000 190.587006 18.850000 -0.499000 # 23 
269 3 6 0.000000 189.494003 16.184999 -1.186000 # 16 
270 3 16 0.000000 186.623993 18.417000 -2.183000 # 25 
271 3 16 0.000000 188.929001 20.157000 -4.653000 # 25 
272 3 6 0.000000 189.880005 16.417999 -6.270000 # 16 
273 3 17 0.000000 186.177994 15.362000 -6.027000 # 26 
274 3 13 0.000000 184.970993 18.483000 -7.938000 # 22 
275 3 7 0.000000 186.862000 17.986000 -11.178000 # 17 
276 3 24 0.000000 188.533997 21.363001 -11.235000 # 33 
277 3 5 0.000000 191.917999 20.100000 -12.679000 # 15 
278 3 11 0.000000 193.796005 17.459000 -13.346000 # 20 
279 3 6 0.000000 196.054993 18.004000 -10.468000 # 16 
280 3 25 0.000000 195.649994 19.853001 -6.789000 # 34 
281 3 13 0.000000 198.147995 20.830999 -5.260000 # 22 
282 3 5 0.000000 199.906998 21.052999 -1.520000 # 15 
283 3 13 0.000000 199.419998 24.309999 -1.033000 # 22 
284 3 5 0.000000 196.093994 24.966999 -2.785000 # 15 
285 3 20 0.000000 193.419006 24.038000 -0.214000 # 29 
286 3 25 0.000000 195.802002 25.337999 2.556000 # 34 
287 3 24 0.000000 195.468002 28.620001 0.800000 # 33 
288 3 16 0.000000 191.768005 27.990999 0.079000 # 25 
289 3 5 0.000000 190.916000 26.906000 3.765000 # 15 
290 3 5 0.000000 192.731003 29.974001 5.115000 # 15 
291 3 25 0.000000 190.473007 31.938999 2.748000 # 34 
292 3 16 0.000000 187.404999 30.445000 3.665000 # 25 
293 3 11 0.000000 188.356995 30.795000 7.398000 # 20 
294 3 24 0.000000 189.220993 34.546001 7.016000 # 33 
295 3 16 0.000000 185.639008 35.115002 5.248000 # 25 
296 3 23 0.000000 184.654999 33.618000 7.909000 # 31 
297 3 5 0.000000 185.572006 35.266998 10.617000 # 15 
298 3 11 0.000000 184.604996 38.493000 8.922000 # 20 
299 3 15 0.000000 180.953995 37.657001 8.540000 # 24 
300 3 16 0.000000 180.718002 36.208000 11.948000 # 25 
301 3 11 0.000000 182.623993 39.501999 13.541000 # 20 
302 3 16 0.000000 180.024002 41.764999 11.872000 # 25 
303 3 5 0.000000 176.992004 39.424000 12.515000 # 15 
304 3 13 0.000000 177.826004 39.057999 16.183001 # 22 
305 3 7 0.000000 177.988998 42.852001 16.273001 # 17 
306 3 5 0.000000 174.617996 43.125000 14.758000 # 15 
307 3 5 0.000000 173.197998 40.580002 17.337999 # 15 
308 3 6 0.000000 174.714996 42.638000 20.107000 # 16 
309 3 8 0.000000 173.412003 45.993000 18.611000 # 18 
310 3 7 0.000000 170.401993 44.537998 19.004999 # 17 
311 3 17 0.000000 170.218002 42.837002 22.316000 # 26 
312 3 17 0.000000 170.647003 39.494999 21.358999 # 26 
313 3 23 0.000000 173.514008 36.862999 22.128000 # 31 
314 3 6 0.000000 172.507004 34.243000 19.379000 # 16 
315 3 15 0.000000 173.147003 35.041000 15.817000 # 24 
316 3 15 0.000000 170.100998 34.424999 13.646000 # 24 
317 3 20 0.000000 169.792999 34.816002 9.773000 # 29 
318 3 6 0.000000 168.481003 38.520000 10.742000 # 16 
319 3 14 0.000000 171.912994 39.505001 11.950000 # 23 
320 3 16 0.000000 173.800995 37.737000 9.007000 # 25 
321 3 12 0.000000 171.649994 39.694000 6.523000 # 21 
322 3 16 0.000000 172.179993 42.966000 8.632000 # 25 
323 3 5 0.000000 176.057999 42.273998 8.623000 # 15 
324 3 25 0.000000 176.250000 41.616001 4.925000 # 34 
325 3 6 0.000000 174.031006 44.345001 3.631000 # 16 
326 3 7 0.000000 175.535995 46.984001 5.838000 # 17 
327 3 8 0.000000 179.117996 46.151001 4.666000 # 18 
328 3 11 0.000000 180.151001 47.457001 1.198000 # 20 
329 3 11 0.000000 182.414993 44.619999 0.309000 # 20 
330 3 16 0.000000 180.391006 41.636002 1.697000 # 25 
331 3 7 0.000000 177.274994 43.127998 0.031000 # 17 
332 3 17 0.000000 179.093994 43.040001 -3.343000 # 26 
333 3 16 0.000000 180.457001 39.564999 -2.808000 # 25 
334 3 16 0.000000 176.949005 38.465000 -1.999000 # 25 
335 3 13 0.000000 175.171997 40.714001 -4.448000 # 22 
336 3 6 0.000000 173.085007 37.966000 -6.076000 # 16 
337 3 25 0.000000 172.552994 35.882000 -3.056000 # 34 
338 3 23 0.000000 169.509995 35.693001 -0.862000 # 31 
339 3 15 0.000000 169.947006 34.792000 2.782000 # 24 
340 3 5 0.000000 166.694000 33.162998 3.861000 # 15 
341 3 12 0.000000 164.845993 34.967999 6.770000 # 21 
342 3 13 0.000000 166.679993 37.748001 7.226000 # 22 
343 3 13 0.000000 164.528000 40.393002 5.728000 # 22 
344 3 25 0.000000 165.847000 43.722000 4.316000 # 34 
345 3 16 0.000000 167.598999 46.817001 5.690000 # 25 
346 3 20 0.000000 165.227005 49.561001 7.032000 # 29 
347 3 7 0.000000 165.089996 52.238998 4.639000 # 17 
348 3 15 0.000000 162.554001 54.595001 3.384000 # 24 
349 3 12 0.000000 163.067993 56.974998 0.303000 # 21 
350 3 22 0.000000 163.268997 60.650002 1.507000 # 30 
351 3 25 0.000000 160.475998 61.879002 -0.777000 # 34 
352 3 16 0.000000 158.242996 59.459999 0.832000 # 25 
353 3 16 0.000000 157.201996 61.602001 3.852000 # 25 
354 3 20 0.000000 158.373993 65.198997 3.313000 # 29 
355 3 17 0.000000 157.929993 68.083000 0.835000 # 26 
356 3 17 0.000000 159.147003 70.728996 -1.686000 # 26 
357 3 23 0.000000 162.514999 69.047997 -0.951000 # 31 
358 3 11 0.000000 163.759995 72.316002 -2.569000 # 20 
359 3 22 0.000000 167.078995 70.771004 -3.816000 # 30 
360 3 22 0.000000 168.949997 72.057999 -6.769000 # 30 
361 3 17 0.000000 171.731003 74.420998 -6.841000 # 26 
362 3 22 0.000000 169.636993 77.607002 -5.979000 # 30 
363 3 17 0.000000 172.847000 79.428001 -6.796000 # 26 
364 3 22 0.000000 174.628998 80.132004 -3.481000 # 30 
365 3 17 0.000000 176.750000 82.667999 -1.791000 # 26 
366 4 5 0.000000 215.932007 -1.074000 -14.688000 # 15 
367 4 17 0.000000 214.218002 -4.177000 -12.946000 # 26 
368 4 22 0.000000 215.556000 -6.463000 -10.210000 # 30 
369 4 5 0.000000 213.783005 -5.336000 -7.098000 # 15 
370 4 20 0.000000 211.145004 -5.377000 -5.657000 # 29 
371 4 5 0.000000 208.444000 -7.623000 -7.250000 # 15 
372 4 20 0.000000 206.412994 -9.627000 -8.228000 # 29 
373 4 17 0.000000 203.845001 -10.610000 -5.502000 # 26 
374 4 17 0.000000 202.873001 -7.490000 -3.860000 # 26 
375 4 13 0.000000 203.889008 -5.636000 -7.060000 # 22 
376 4 22 0.000000 200.266006 -4.533000 -7.283000 # 30 
377 4 17 0.000000 197.188995 -6.341000 -5.661000 # 26 
378 4 17 0.000000 196.473007 -6.398000 -1.892000 # 26 
379 4 5 0.000000 192.822998 -5.850000 -1.126000 # 15 
380 4 25 0.000000 190.376999 -7.011000 -3.727000 # 34 
381 4 23 0.000000 188.389999 -3.998000 -4.008000 # 31 
382 4 17 0.000000 184.694000 -3.930000 -4.703000 # 26 
383 4 23 0.000000 183.738998 -6.081000 -1.676000 # 31 
384 4 12 0.000000 181.007996 -6.555000 0.977000 # 21 
385 4 17 0.000000 182.289001 -4.731000 4.056000 # 26 
386 4 17 0.000000 183.115005 -1.133000 4.619000 # 26 
387 4 8 0.000000 181.108994 2.145000 4.737000 # 18 
388 4 13 0.000000 178.707993 1.377000 7.584000 # 22 
389 4 17 0.000000 175.186005 1.712000 9.197000 # 26 
390 4 17 0.000000 175.750000 5.407000 9.378000 # 26 
391 4 6 0.000000 174.059998 7.083000 6.365000 # 16 
392 4 6 0.000000 174.944000 10.596000 7.143000 # 16 
393 4 17 0.000000 172.444000 12.946000 5.534000 # 26 
394 4 23 0.000000 169.828995 13.029000 8.141000 # 31 
395 4 6 0.000000 168.518997 16.402000 9.372000 # 16 
396 4 17 0.000000 169.727005 17.666000 12.805000 # 26 
397 4 11 0.000000 173.292999 17.458000 11.674000 # 20 
398 4 22 0.000000 176.395996 19.639999 12.171000 # 30 
399 4 24 0.000000 176.164993 23.312000 12.910000 # 33 
400 4 5 0.000000 179.356003 24.076000 11.215000 # 15 
401 4 15 0.000000 182.037994 22.680000 13.650000 # 24 
402 4 24 0.000000 184.649002 25.097000 11.993000 # 33 
403 4 25 0.000000 182.309998 27.777000 11.760000 # 34 
404 4 24 0.000000 181.535004 27.280001 15.379000 # 33 
405 4 17 0.000000 185.171005 27.298000 16.287001 # 26 
406 4 25 0.000000 185.811996 30.650999 14.508000 # 34 
407 4 16 0.000000 182.697006 32.196999 15.978000 # 25 
408 4 17 0.000000 183.996002 31.371000 19.546000 # 26 
409 4 12 0.000000 187.360992 33.127998 18.584999 # 21 
410 4 25 0.000000 185.653000 36.321999 17.518999 # 34 
411 4 14 0.000000 182.669998 36.441002 19.801001 # 23 
412 4 20 0.000000 183.345993 34.090000 22.778999 # 29 
413 4 8 0.000000 180.167999 34.737999 24.434999 # 18 
414 4 23 0.000000 177.820999 34.580002 21.198000 # 31 
415 4 13 0.000000 175.951996 31.584999 19.910000 # 22 
416 4 15 0.000000 174.380005 30.867001 16.482000 # 24 
417 4 22 0.000000 171.119003 29.379000 15.539000 # 30 
418 4 22 0.000000 171.044998 26.355000 13.118000 # 30 
419 4 17 0.000000 169.119995 28.297001 10.580000 # 26 
420 4 5 0.000000 171.923004 30.827000 10.822000 # 15 
421 4 18 0.000000 174.505005 27.910999 10.738000 # 27 
422 4 22 0.000000 172.834000 26.541000 7.513000 # 30 
423 4 15 0.000000 173.270996 29.938000 6.035000 # 24 
424 4 18 0.000000 176.529999 29.950001 6.838000 # 27 
425 4 7 0.000000 177.376999 26.402000 5.589000 # 17 
426 4 22 0.000000 175.925003 27.716999 2.218000 # 30 
427 4 19 0.000000 178.220993 30.698999 2.351000 # 28 
428 4 25 0.000000 181.373001 28.830999 2.899000 # 34 
429 4 7 0.000000 180.550995 26.114000 0.349000 # 17 
430 4 8 0.000000 179.455994 29.155001 -2.228000 # 18 
431 4 25 0.000000 182.639008 30.715000 -2.011000 # 34 
432 4 19 0.000000 184.526993 27.546000 -2.227000 # 28 
433 4 11 0.000000 183.070007 26.865999 -5.426000 # 20 
434 4 6 0.000000 183.304993 30.197001 -6.850000 # 16 
435 4 15 0.000000 186.988007 30.261000 -6.057000 # 24 
436 4 5 0.000000 187.623993 26.728001 -7.239000 # 15 
437 4 13 0.000000 185.796997 27.339001 -10.538000 # 22 
438 4 11 0.000000 187.638000 30.466000 -11.046000 # 20 
439 4 5 0.000000 190.998001 28.679001 -10.368000 # 15 
440 4 22 0.000000 189.932007 25.791000 -12.723000 # 30 
441 4 6 0.000000 189.358994 28.056999 -15.736000 # 16 
442 4 16 0.000000 193.199997 29.388000 -13.626000 # 25 
443 4 5 0.000000 194.501999 26.737000 -15.045000 # 15 
444 4 14 0.000000 192.776993 25.694000 -18.318001 # 23 
445 4 24 0.000000 193.436005 28.878000 -20.794001 # 33 
446 4 7 0.000000 196.912003 28.542999 -18.955000 # 17 
447 4 17 0.000000 197.091995 24.929001 -20.249001 # 26 
448 4 6 0.000000 198.132004 23.729000 -16.808001 # 16 
449 4 22 0.000000 196.847000 20.930000 -15.470000 # 30 
450 4 23 0.000000 197.723007 21.721001 -11.762000 # 31 
451 4 15 0.000000 195.664001 24.066000 -9.489000 # 24 
452 4 23 0.000000 198.285995 25.370001 -7.107000 # 31 
453 4 22 0.000000 198.100998 27.983999 -4.408000 # 30 
454 4 6 0.000000 198.942993 30.327000 -7.119000 # 16 
455 4 11 0.000000 195.748001 29.791000 -9.032000 # 20 
456 4 15 0.000000 193.815002 30.024000 -5.794000 # 24 
457 4 12 0.000000 195.442993 33.230999 -5.265000 # 21 
458 4 23 0.000000 194.791000 34.973000 -8.234000 # 31 
459 4 5 0.000000 191.026993 33.430000 -8.176000 # 15 
460 4 25 0.000000 190.701004 35.150002 -5.059000 # 34 
461 4 6 0.000000 191.755005 38.365002 -6.529000 # 16 
462 4 16 0.000000 189.419006 38.011002 -9.250000 # 25 
463 4 16 0.000000 186.520004 37.145000 -7.063000 # 25 
464 4 16 0.000000 186.789001 39.222000 -3.934000 # 25 
465 4 20 0.000000 186.339996 42.898998 -3.629000 # 29 
466 4 13 0.000000 189.203995 45.227001 -2.707000 # 22 
467 4 11 0.000000 189.972000 44.987000 0.816000 # 20 
468 4 16 0.000000 188.550995 41.487000 1.387000 # 25 
469 4 5 0.000000 190.908997 40.002998 -1.371000 # 15 
470 4 17 0.000000 193.951004 42.069000 0.125000 # 26 
471 4 14 0.000000 192.914001 41.344002 4.417000 # 23 
472 4 5 0.000000 191.529999 36.626999 1.577000 # 15 
473 4 25 0.000000 195.884003 36.876999 -0.382000 # 34 
474 4 22 0.000000 198.945999 38.209999 2.957000 # 30 
475 4 11 0.000000 196.274002 34.814999 5.581000 # 20 
476 4 13 0.000000 196.113007 32.592999 2.417000 # 22 
477 4 23 0.000000 199.979996 33.268002 1.805000 # 31 
478 4 17 0.000000 200.651001 33.147999 5.544000 # 26 
479 4 5 0.000000 199.134003 29.757000 5.900000 # 15 
480 4 25 0.000000 200.977997 28.333000 2.947000 # 34 
481 4 23 0.000000 204.061996 29.395000 4.065000 # 31 
482 4 17 0.000000 203.613007 28.115999 7.574000 # 26 
483 4 24 0.000000 202.526001 24.966000 6.322000 # 33 
484 4 23 0.000000 205.718994 24.591000 4.141000 # 31 
485 4 22 0.000000 207.919006 25.639000 7.076000 # 30 
486 4 5 0.000000 207.186996 22.312000 8.828000 # 15 
487 4 17 0.000000 209.069000 20.440001 7.327000 # 26 
488 5 5 0.000000 143.768997 24.976999 55.667999 # 15 
489 5 6 0.000000 144.748993 26.319000 52.271000 # 16 
490 5 23 0.000000 141.839005 26.783001 50.091999 # 31 
491 5 17 0.000000 142.873993 25.738001 46.537998 # 26 
492 5 12 0.000000 144.287994 28.724001 44.790001 # 21 
493 5 23 0.000000 148.016006 29.655001 44.465000 # 31 
494 5 5 0.000000 148.548004 30.715000 48.091000 # 15 
495 5 6 0.000000 152.156998 30.138000 47.444000 # 16 
496 5 17 0.000000 154.281006 32.717999 45.546001 # 26 
497 5 22 0.000000 156.608994 34.965000 47.339001 # 30 
498 5 23 0.000000 154.901001 38.451000 47.462002 # 31 
499 5 13 0.000000 152.050995 37.883999 44.926998 # 22 
500 5 13 0.000000 150.237000 38.893002 48.174000 # 22 
501 5 17 0.000000 148.677002 42.183998 49.500999 # 26 
502 5 5 0.000000 148.677002 44.125999 46.355999 # 15 
503 5 20 0.000000 147.593002 43.209000 42.803001 # 29 
504 5 6 0.000000 149.125000 40.653999 40.441002 # 16 
505 5 17 0.000000 147.949997 42.103001 37.082001 # 26 
506 5 12 0.000000 146.406006 45.488998 36.104000 # 21 
507 5 16 0.000000 148.673996 47.355000 33.539001 # 25 
508 5 5 0.000000 151.811005 49.446999 32.803001 # 15 
509 5 23 0.000000 155.561996 49.563000 32.893002 # 31 
510 5 17 0.000000 157.869003 46.980000 31.277000 # 26 
511 5 5 0.000000 158.880997 47.312000 27.594999 # 15 
512 5 5 0.000000 158.035004 47.133999 23.940001 # 15 
513 5 6 0.000000 156.380005 50.515999 24.285000 # 16 
514 5 17 0.000000 157.722000 53.637001 22.434000 # 26 
515 5 22 0.000000 157.061005 52.766998 18.848000 # 30 
516 5 5 0.000000 153.744003 53.577000 17.245001 # 15 
517 5 20 0.000000 154.824005 57.299999 18.120001 # 29 
518 5 5 0.000000 157.957001 56.641998 16.350000 # 15 
519 5 23 0.000000 157.343994 58.948002 13.360000 # 31 
520 5 13 0.000000 158.675003 62.438000 12.554000 # 22 
521 5 13 0.000000 160.751999 64.186996 15.198000 # 22 
522 5 25 0.000000 159.423004 62.780998 18.523001 # 34 
523 5 17 0.000000 156.035995 62.243000 20.156000 # 26 
524 5 17 0.000000 152.447006 63.664001 19.877001 # 26 
525 5 20 0.000000 151.951996 66.371002 17.153999 # 29 