protein dna data file produced on: Sun Mar  6 19:11:31 2022

15564 atoms
15496 bonds
20600 angles
15784 dihedrals

34 atom types
2 bond types
18 angle types
2 dihedral types

-1000.000000 1000.000000 xlo xhi
-1000.000000 1000.000000 ylo yhi
-1000.000000 1000.000000 zlo zhi

Masses

   1   94.9696
   2   83.1104
   3  134.1220
   4  125.1078
   5  150.1214
   6  110.0964
   7  134.1220
   8  125.1078
   9  150.1214
  10  110.0964
  11  134.1220
  12  125.1078
  13  150.1214
  14  110.0964
  15   71.0788
  16  156.1875
  17  114.1038
  18  115.0886
  19  103.1388
  20  129.1155
  21  128.1307
  22   57.0519
  23  137.1411
  24  113.1594
  25  113.1594
  26  128.1741
  27  131.1926
  28  147.1766
  29   97.1167
  30   87.0782
  31  101.1051
  32  186.2132
  33  163.1760
  34   99.1326

Atoms

1 1 1 15 0.0000 58.608002 -43.182999 25.201000
2 1 2 16 1.0000 62.172001 -42.187000 24.434999
3 1 3 31 0.0000 63.816002 -39.240002 22.475000
4 1 4 26 1.0000 67.410004 -39.387001 23.662001
5 1 5 21 0.0000 68.691002 -42.161999 25.789000
6 1 6 31 0.0000 72.342003 -41.084000 25.743000
7 1 7 15 0.0000 74.865997 -42.925999 27.778999
8 1 8 16 1.0000 76.374001 -40.877998 24.844000
9 1 9 26 1.0000 75.917000 -43.588001 22.507000
10 1 10 30 0.0000 78.214996 -46.513000 23.552000
11 1 11 31 0.0000 75.497002 -48.469002 25.426001
12 1 12 22 0.0000 72.460999 -49.532001 27.624001
13 1 13 22 0.0000 70.249001 -52.678001 27.082001
14 1 14 26 1.0000 71.872002 -54.537998 30.068001
15 1 15 15 0.0000 70.822998 -52.862000 33.395000
16 1 16 29 0.0000 73.852997 -53.132999 35.553001
17 1 17 16 1.0000 73.853996 -49.388000 35.286999
18 1 18 26 1.0000 73.509003 -45.918999 37.264000
19 1 19 21 0.0000 69.760002 -45.813000 37.688000
20 1 20 25 0.0000 68.237999 -46.210999 41.152000
21 1 21 15 0.0000 70.214996 -47.069000 44.243999
22 1 22 31 0.0000 71.942001 -44.622002 46.422001
23 1 23 26 1.0000 71.103996 -41.080002 45.203999
24 1 24 15 0.0000 71.902000 -37.964001 47.193001
25 1 25 15 0.0000 70.036003 -39.728001 49.960999
26 1 26 16 1.0000 66.433998 -40.620998 49.144001
27 1 27 26 1.0000 65.449997 -43.877998 50.848999
28 1 28 30 0.0000 61.832001 -44.118000 51.703999
29 1 29 15 0.0000 60.916000 -46.456001 54.597000
30 1 30 29 0.0000 59.898998 -50.071999 53.938999
31 1 31 15 0.0000 60.181000 -50.112999 57.695999
32 1 32 31 0.0000 58.210999 -51.312000 60.790001
33 1 33 22 0.0000 55.765999 -54.181000 61.527000
34 1 34 22 0.0000 56.757000 -57.021000 64.043999
35 1 35 34 0.0000 56.398998 -60.652000 64.223000
36 1 36 26 1.0000 55.789001 -61.997002 67.731003
37 1 37 26 1.0000 55.984001 -65.960999 67.735001
38 1 38 29 0.0000 58.681000 -67.969002 65.754997
39 1 39 23 0.0000 59.366001 -66.276001 62.519001
40 1 40 16 1.0000 60.936001 -68.782997 60.175999
41 1 41 33 0.0000 62.875000 -72.017998 60.153000
42 1 42 16 1.0000 62.632999 -74.207001 57.133999
43 1 43 29 0.0000 64.994003 -77.233002 56.643002
44 1 44 22 0.0000 67.691002 -75.391998 54.797001
45 1 45 31 0.0000 65.259003 -73.304001 53.536999
46 1 46 34 0.0000 67.644997 -70.714996 52.063999
47 1 47 15 0.0000 70.063004 -73.402000 50.898998
48 1 48 25 0.0000 67.111000 -74.971001 48.875999
49 1 49 16 1.0000 66.153000 -71.522003 47.500000
50 1 50 20 -1.0000 69.837997 -71.166000 46.320999
51 1 51 24 0.0000 69.838997 -74.615997 44.726002
52 1 52 16 1.0000 66.641998 -73.632004 42.723000
53 1 53 16 1.0000 68.056000 -70.195000 41.714001
54 1 54 33 0.0000 71.402000 -71.598000 40.490002
55 1 55 21 0.0000 69.882004 -74.598000 38.780998
56 1 56 26 1.0000 67.727997 -72.192001 36.772999
57 1 57 30 0.0000 70.761002 -70.169998 35.481998
58 1 58 31 0.0000 73.406998 -69.551003 33.953999
59 1 59 20 -1.0000 75.914001 -67.654999 34.442001
60 1 60 25 0.0000 79.457001 -68.389999 35.567001
61 1 61 25 0.0000 79.749001 -68.677002 39.462002
62 1 62 24 0.0000 83.313004 -68.152000 39.985001
63 1 63 16 1.0000 83.956001 -64.737000 39.360001
64 1 64 26 1.0000 86.068001 -63.505001 36.027000
65 1 65 25 0.0000 89.543999 -61.856998 37.555000
66 1 66 29 0.0000 91.987999 -64.310997 40.459000
67 1 67 28 0.0000 89.773003 -67.146004 37.867001
68 1 68 21 0.0000 91.843002 -65.495003 35.348999
69 1 69 16 1.0000 94.764000 -65.138000 37.750000
70 1 70 25 0.0000 94.915001 -68.846001 38.831001
71 1 71 34 0.0000 94.921997 -69.820000 35.193001
72 1 72 16 1.0000 97.816002 -67.504997 34.372002
73 1 73 20 -1.0000 99.744003 -68.691002 37.594002
74 1 74 24 0.0000 99.281998 -72.546997 36.582001
75 1 75 15 0.0000 100.305000 -71.848999 33.014999
76 1 76 21 0.0000 103.462997 -69.863998 34.084000
77 1 77 18 -1.0000 104.818001 -72.973999 35.779999
78 1 78 28 0.0000 104.676003 -74.921997 32.105999
79 1 79 26 1.0000 105.829002 -71.983002 30.112000
80 1 80 31 0.0000 106.724998 -68.363998 31.049999
81 1 81 18 -1.0000 105.741997 -65.203003 29.386000
82 1 82 25 0.0000 102.417000 -66.570999 27.851999
83 1 83 16 1.0000 99.424004 -64.485001 26.650000
84 1 84 28 0.0000 95.963997 -65.813004 26.561001
85 1 85 21 0.0000 93.150002 -65.084999 24.164000
86 1 86 30 0.0000 90.155998 -63.908001 26.312000
87 1 87 30 0.0000 88.694000 -66.781998 25.349001
88 1 88 15 0.0000 90.853996 -69.263000 26.023001
89 1 89 34 0.0000 90.353996 -68.231003 29.597000
90 1 90 27 0.0000 86.487999 -68.376999 29.141001
91 1 91 15 0.0000 86.712997 -71.740997 27.607000
92 1 92 25 0.0000 88.805000 -72.877998 30.660999
93 1 93 21 0.0000 86.209999 -71.401001 33.060001
94 1 94 20 -1.0000 83.094002 -72.914001 31.461000
95 1 95 15 0.0000 84.978996 -76.231003 31.388000
96 1 96 30 0.0000 86.292000 -75.850998 34.692001
97 1 97 20 -1.0000 82.130997 -74.635002 35.678001
98 1 98 15 0.0000 80.757004 -77.629997 34.391998
99 1 99 33 0.0000 83.647003 -80.772003 35.066002
100 1 100 25 0.0000 82.832001 -80.014999 42.757000
101 1 101 34 0.0000 79.192001 -78.739998 39.171001
102 1 102 15 0.0000 79.165001 -82.303001 37.973999
103 1 103 25 0.0000 81.653999 -83.531998 40.409000
104 1 104 28 0.0000 79.175003 -82.036003 43.360001
105 1 105 20 -1.0000 76.374001 -83.847000 41.948002
106 1 106 18 -1.0000 78.336998 -87.136002 42.299000
107 1 107 31 0.0000 79.716003 -86.014999 45.699001
108 1 108 17 0.0000 76.077003 -85.397003 46.890999
109 1 109 25 0.0000 75.030998 -88.908997 45.817001
110 1 110 19 0.0000 77.908997 -90.233002 47.948002
111 1 111 15 0.0000 76.844002 -88.263000 51.013000
112 1 112 24 0.0000 73.332001 -89.440002 50.674999
113 1 113 23 0.0000 74.502998 -92.998001 50.195999
114 1 114 15 0.0000 76.028999 -92.689003 53.664001
115 1 115 26 1.0000 72.682999 -91.454002 55.067001
116 1 116 16 1.0000 73.986000 -87.856003 55.338001
117 1 117 34 0.0000 72.858002 -84.579002 53.733002
118 1 118 31 0.0000 76.195000 -82.834999 54.306000
119 1 119 24 0.0000 78.924004 -83.352997 51.749001
120 1 120 27 0.0000 82.330002 -84.072998 53.088001
121 1 121 29 0.0000 85.883003 -84.488998 51.632999
122 1 122 26 1.0000 85.460999 -88.307999 51.939999
123 1 123 18 -1.0000 82.480003 -87.928001 49.402000
124 1 124 24 0.0000 84.488998 -85.948997 46.881001
125 1 125 21 0.0000 87.328003 -88.535004 47.292999
126 1 126 25 0.0000 85.014999 -91.414001 46.882999
127 1 127 15 0.0000 83.472000 -89.912003 43.683998
128 1 128 16 1.0000 86.893997 -89.196999 42.191002
129 1 129 16 1.0000 88.211998 -92.664001 42.931999
130 1 130 24 0.0000 85.253998 -94.014000 41.321999
131 1 131 16 1.0000 85.445000 -92.084000 38.372002
132 1 132 22 0.0000 89.021004 -93.092003 37.840000
133 1 133 20 -1.0000 90.523003 -89.791000 38.686001
134 1 134 16 1.0000 92.129997 -90.816002 41.816002
135 1 135 15 0.0000 92.123001 -94.431000 40.855999
136 2 136 30 0.0000 80.624001 -34.122002 41.645000
137 2 137 22 0.0000 80.943001 -34.820000 45.338001
138 2 138 16 1.0000 80.246002 -31.188000 46.326000
139 2 139 22 0.0000 76.984001 -30.540001 48.450001
140 2 140 26 1.0000 73.330002 -31.059000 47.629002
141 2 141 22 0.0000 71.682999 -32.702000 50.639000
142 2 142 22 0.0000 73.141998 -35.903000 52.021999
143 2 143 26 1.0000 71.997002 -39.009998 54.039001
144 2 144 22 0.0000 74.719002 -41.249001 55.765999
145 2 145 25 0.0000 78.089996 -41.757000 54.035000
146 2 146 22 0.0000 79.449997 -41.276001 50.551998
147 2 147 26 1.0000 82.769997 -42.532001 52.041000
148 2 148 22 0.0000 85.628998 -41.868999 49.533001
149 2 149 22 0.0000 87.268997 -44.792999 47.686001
150 2 150 15 0.0000 89.905998 -44.091000 45.169998
151 2 151 26 1.0000 93.038002 -46.353001 44.985001
152 2 152 16 1.0000 93.181999 -49.382999 42.867001
153 2 153 23 0.0000 94.221001 -49.978001 39.318001
154 2 154 16 1.0000 95.154999 -53.358002 37.917000
155 2 155 26 1.0000 97.946999 -55.377998 39.616001
156 2 156 34 0.0000 98.133003 -58.481998 41.777000
157 2 157 25 0.0000 99.113998 -61.157001 39.341000
158 2 158 16 1.0000 100.086998 -64.627998 40.270000
159 2 159 18 -1.0000 98.870003 -67.102997 42.816002
160 2 160 17 0.0000 95.151001 -66.750000 43.681000
161 2 161 24 0.0000 93.661003 -70.450996 44.278000
162 2 162 21 0.0000 92.749001 -68.931999 47.625000
163 2 163 22 0.0000 90.658997 -66.389000 45.275002
164 2 164 24 0.0000 88.390999 -69.027000 44.255001
165 2 165 31 0.0000 86.176003 -68.120003 47.226002
166 2 166 26 1.0000 84.055000 -70.151001 49.816002
167 2 167 29 0.0000 81.035004 -68.376999 48.425999
168 2 168 15 0.0000 81.863998 -69.307999 44.800999
169 2 169 24 0.0000 82.374001 -72.928001 45.764000
170 2 170 16 1.0000 79.066002 -72.902000 47.694000
171 2 171 16 1.0000 77.322998 -71.594002 44.601002
172 2 172 25 0.0000 78.984001 -74.310997 42.263000
173 2 173 15 0.0000 77.722000 -76.862999 44.945999
174 2 174 16 1.0000 74.180000 -75.379997 44.896000
175 2 175 16 1.0000 74.001999 -75.644997 41.120998
176 2 176 22 0.0000 75.190002 -79.248001 41.770000
177 2 177 22 0.0000 72.170998 -79.792000 44.085999
178 2 178 34 0.0000 74.051003 -79.699997 47.429001
179 2 179 26 1.0000 72.139000 -78.453003 50.590000
180 2 180 16 1.0000 74.709999 -78.750000 53.346001
181 2 181 24 0.0000 78.481003 -78.372002 53.146000
182 2 182 30 0.0000 81.275002 -79.449997 55.478001
183 2 183 22 0.0000 83.500999 -77.149002 56.320000
184 2 184 25 0.0000 86.577003 -78.873001 54.953999
185 2 185 24 0.0000 84.973999 -78.983002 51.472000
186 2 186 33 0.0000 86.377998 -75.593002 50.464001
187 2 187 20 -1.0000 90.050003 -76.620003 50.571999
188 2 188 20 -1.0000 89.343002 -79.921997 49.120998
189 2 189 31 0.0000 87.542999 -78.295998 46.169998
190 2 190 16 1.0000 90.428001 -75.917999 45.626999
191 2 191 22 0.0000 92.889999 -78.889000 45.453999
192 2 192 34 0.0000 90.793999 -80.741997 42.883999
193 2 193 25 0.0000 89.865997 -77.592003 40.668999
194 2 194 26 1.0000 93.900002 -77.000999 40.827999
195 2 195 34 0.0000 94.597000 -80.525002 39.516998
196 2 196 28 0.0000 91.945000 -80.061996 36.852001
197 2 197 25 0.0000 93.426003 -76.900002 35.615002
198 2 198 20 -1.0000 96.836998 -78.205002 35.742001
199 2 199 17 0.0000 95.999001 -81.095001 33.612000
200 2 200 34 0.0000 94.070000 -79.114998 31.068001
201 2 201 24 0.0000 96.475998 -76.216003 30.867001
202 2 202 16 1.0000 98.891998 -78.515999 30.186001
203 2 203 18 -1.0000 98.136002 -79.932999 27.386000
204 2 204 15 0.0000 96.876999 -76.626999 26.079000
205 2 205 34 0.0000 100.343002 -75.114998 26.514000
206 2 206 31 0.0000 101.706001 -78.281998 24.625000
207 2 207 33 0.0000 99.625000 -77.580002 21.547001
208 2 208 31 0.0000 100.658997 -73.771004 22.169001
209 2 209 20 -1.0000 104.472000 -74.674004 22.094999
210 2 210 23 0.0000 104.136002 -76.988998 19.188999
211 2 211 15 0.0000 102.494003 -74.197998 17.118000
212 2 212 26 1.0000 105.369003 -72.084000 18.007000
213 2 213 16 1.0000 103.135002 -69.843002 19.795000
214 2 214 26 1.0000 103.287003 -67.391998 22.707001
215 2 215 31 0.0000 99.568001 -67.025002 23.006001
216 2 216 34 0.0000 97.282997 -69.744003 24.358000
217 2 217 31 0.0000 94.259003 -69.858002 22.108999
218 2 218 15 0.0000 90.707001 -71.019997 22.698999
219 2 219 27 0.0000 91.459000 -73.858002 20.226000
220 2 220 18 -1.0000 94.433998 -75.002998 22.329000
221 2 221 34 0.0000 92.108002 -75.258003 25.233999
222 2 222 34 0.0000 89.472000 -76.956001 23.230000
223 2 223 33 0.0000 91.834999 -79.647003 21.632000
224 2 224 15 0.0000 93.294998 -80.152000 25.382999
225 2 225 25 0.0000 89.805000 -80.601997 26.805000
226 2 226 26 1.0000 88.973000 -82.805000 23.996000
227 2 227 16 1.0000 91.822998 -85.341003 24.538000
228 2 228 21 0.0000 91.112999 -85.392998 28.316000
229 2 229 22 0.0000 87.695999 -86.617996 28.139000
230 2 230 16 1.0000 85.987999 -83.290001 28.354000
231 2 231 31 0.0000 84.850998 -82.075996 24.868999
232 2 232 25 0.0000 83.546997 -78.468002 25.117001
233 2 233 33 0.0000 81.146004 -76.925003 22.604000
234 2 234 22 0.0000 80.946999 -73.241997 21.948000
235 2 235 28 0.0000 84.572998 -72.484001 21.450001
236 2 236 22 0.0000 85.583000 -73.444000 17.983999
237 2 237 22 0.0000 85.219002 -70.100998 16.072001
238 3 238 30 0.0000 154.447006 -100.828003 2.868000
239 3 239 22 0.0000 151.444000 -103.055000 2.296000
240 3 240 16 1.0000 149.098007 -102.337997 -0.590000
241 3 241 22 0.0000 146.222000 -103.982002 1.065000
242 3 242 26 1.0000 143.227997 -103.235001 -1.298000
243 3 243 21 0.0000 141.035995 -106.137001 -2.292000
244 3 244 22 0.0000 137.304001 -107.167000 -2.259000
245 3 245 22 0.0000 134.307999 -108.518997 -0.272000
246 3 246 26 1.0000 133.727005 -107.209000 3.190000
247 3 247 31 0.0000 132.576004 -103.814003 3.779000
248 3 248 16 1.0000 134.320007 -102.626999 6.868000
249 3 249 15 0.0000 131.048004 -100.597000 7.021000
250 3 250 26 1.0000 129.552994 -97.616997 5.142000
251 3 251 15 0.0000 128.197998 -100.625999 3.519000
252 3 252 26 1.0000 127.092003 -102.525002 6.540000
253 3 253 31 0.0000 124.469002 -100.168999 7.657000
254 3 254 16 1.0000 125.114998 -99.488998 11.274000
255 3 255 30 0.0000 122.132004 -97.220001 12.035000
256 3 256 30 0.0000 120.061996 -100.239998 13.056000
257 3 257 16 1.0000 117.242996 -98.172997 14.606000
258 3 258 15 0.0000 119.556000 -95.049004 14.415000
259 3 259 22 0.0000 121.128998 -97.375000 17.000000
260 3 260 25 0.0000 117.845001 -99.261002 17.605000
261 3 261 21 0.0000 116.559998 -102.723000 17.978001
262 3 262 28 0.0000 113.022003 -101.926003 16.865000
263 3 263 29 0.0000 112.407997 -101.742996 13.081000
264 3 264 34 0.0000 112.324997 -98.139000 11.619000
265 3 265 22 0.0000 111.341003 -99.112999 8.572000
266 3 266 16 1.0000 108.319000 -101.010002 9.849000
267 3 267 34 0.0000 107.360001 -98.335999 11.665000
268 3 268 23 0.0000 106.813004 -96.977997 8.795000
269 3 269 16 1.0000 105.412003 -98.155998 6.466000
270 3 270 25 0.0000 102.841003 -98.652000 9.177000
271 3 271 25 0.0000 102.744003 -94.886002 9.677000
272 3 272 16 1.0000 102.018997 -94.446999 5.579000
273 3 273 26 1.0000 99.583000 -97.435997 5.682000
274 3 274 22 0.0000 97.547997 -95.915001 8.580000
275 3 275 17 0.0000 96.484001 -92.671997 6.945000
276 3 276 33 0.0000 97.787003 -90.375000 9.632000
277 3 277 15 0.0000 99.005997 -87.586998 7.207000
278 3 278 20 -1.0000 99.668999 -86.787003 4.067000
279 3 279 16 1.0000 103.334999 -87.004997 4.503000
280 3 280 34 0.0000 105.818001 -89.089996 7.074000
281 3 281 22 0.0000 108.698997 -88.107002 7.586000
282 3 282 15 0.0000 112.625999 -89.336998 8.030000
283 3 283 22 0.0000 112.827003 -88.883003 11.322000
284 3 284 15 0.0000 109.306000 -89.714996 12.536000
285 3 285 29 0.0000 109.265999 -93.522003 12.922000
286 3 286 34 0.0000 112.983002 -93.329002 14.012000
287 3 287 33 0.0000 111.670998 -91.274002 16.844999
288 3 288 25 0.0000 108.564003 -93.476997 17.158001
289 3 289 15 0.0000 110.577003 -96.858002 17.101999
290 3 290 15 0.0000 112.977997 -95.502998 19.733999
291 3 291 34 0.0000 109.822998 -94.773003 21.753000
292 3 292 25 0.0000 108.286003 -97.933998 21.396999
293 3 293 20 -1.0000 111.657997 -99.655998 22.188000
294 3 294 33 0.0000 112.191002 -97.555000 25.391001
295 3 295 25 0.0000 108.476997 -98.579002 26.591000
296 3 296 31 0.0000 109.635002 -101.508003 25.983999
297 3 297 15 0.0000 112.317001 -102.134003 27.804001
298 3 298 20 -1.0000 110.609001 -100.560997 30.775000
299 3 299 24 0.0000 107.768997 -103.027000 30.947001
300 3 300 25 0.0000 109.985001 -105.935997 30.319000
301 3 301 20 -1.0000 112.637001 -104.605003 33.186001
302 3 302 25 0.0000 109.766998 -104.464996 35.719002
303 3 303 15 0.0000 108.008003 -107.707001 34.502998
304 3 304 22 0.0000 111.210999 -109.709000 34.641998
305 3 305 17 0.0000 111.605003 -108.374001 38.175999
306 3 306 15 0.0000 108.202003 -109.524002 39.088001
307 3 307 15 0.0000 108.942001 -113.046997 37.605000
308 3 308 16 1.0000 112.103996 -113.172997 39.651001
309 3 309 18 -1.0000 110.317001 -111.913002 42.876999
310 3 310 17 0.0000 108.443001 -114.675003 42.438000
311 3 311 26 1.0000 110.610001 -117.571999 41.541000
312 3 312 26 1.0000 110.026001 -117.783997 38.092999
313 3 313 31 0.0000 112.408997 -117.273003 34.963001
314 3 314 16 1.0000 109.580002 -117.009003 32.249001
315 3 315 24 0.0000 107.494003 -113.948997 32.119999
316 3 316 24 0.0000 103.791000 -114.750000 31.976999
317 3 317 29 0.0000 100.804001 -112.252998 31.672001
318 3 318 16 1.0000 100.809998 -112.515999 35.712002
319 3 319 23 0.0000 104.103996 -110.693001 35.903000
320 3 320 25 0.0000 103.179001 -108.081001 33.132999
321 3 321 21 0.0000 100.014000 -107.205002 35.092999
322 3 322 25 0.0000 102.087997 -107.140999 38.429001
323 3 323 15 0.0000 104.716003 -104.782997 36.681999
324 3 324 34 0.0000 102.139999 -102.424004 35.285000
325 3 325 16 1.0000 99.832001 -102.121002 38.221001
326 3 326 17 0.0000 102.612000 -101.686996 40.707001
327 3 327 18 -1.0000 104.188004 -98.802002 38.682999
328 3 328 20 -1.0000 102.470001 -95.370003 38.938000
329 3 329 20 -1.0000 103.227997 -94.231003 35.460999
330 3 330 25 0.0000 102.665001 -97.514000 33.501999
331 3 331 17 0.0000 99.398003 -97.981003 35.457001
332 3 332 26 1.0000 98.210999 -94.558998 34.201000
333 3 333 25 0.0000 99.338997 -95.182999 30.657000
334 3 334 25 0.0000 97.443001 -98.432999 30.773001
335 3 335 22 0.0000 94.577003 -97.231003 32.908001
336 3 336 16 1.0000 91.806000 -98.474998 30.598000
337 3 337 34 0.0000 93.502998 -101.540001 29.382000
338 3 338 31 0.0000 92.977997 -105.088997 30.495001
339 3 339 24 0.0000 95.860001 -107.519997 30.238001
340 3 340 15 0.0000 94.304001 -110.958000 29.837999
341 3 341 21 0.0000 95.234001 -113.509003 32.625000
342 3 342 22 0.0000 96.985001 -111.642998 34.805000
343 3 343 22 0.0000 94.570000 -111.191002 37.605000
344 3 344 34 0.0000 94.649002 -108.246002 40.083000
345 3 345 25 0.0000 97.024002 -106.940002 42.763000
346 3 346 29 0.0000 96.514000 -108.482002 46.271999
347 3 347 17 0.0000 94.843002 -106.078003 48.356998
348 3 348 24 0.0000 92.322998 -106.138000 51.040001
349 3 349 21 0.0000 90.586998 -102.945000 52.527000
350 3 350 30 0.0000 91.805000 -102.363998 56.157001
351 3 351 34 0.0000 88.299004 -102.294998 57.653000
352 3 352 25 0.0000 87.785004 -105.671997 56.327999
353 3 353 25 0.0000 86.109001 -106.517998 59.712002
354 3 354 29 0.0000 87.968002 -106.813004 63.077999
355 3 355 26 1.0000 86.684998 -106.164001 66.553001
356 3 356 26 1.0000 84.934998 -107.292999 69.748001
357 3 357 31 0.0000 88.384003 -106.447998 71.439003
358 3 358 20 -1.0000 85.653000 -106.050003 74.238998
359 3 359 30 0.0000 83.074997 -104.226997 72.015999
360 3 360 30 0.0000 79.640999 -103.334000 73.464996
361 3 361 26 1.0000 78.086998 -106.584999 74.382004
362 3 362 30 0.0000 77.998001 -106.690002 78.223999
363 3 363 26 1.0000 78.731003 -110.399002 78.539001
364 3 364 30 0.0000 79.253998 -110.625000 82.309998
365 3 365 26 1.0000 80.468002 -112.966003 85.015999
366 4 366 15 0.0000 86.237000 -133.203003 -6.452000
367 4 367 26 1.0000 87.615997 -132.057999 -10.009000
368 4 368 30 0.0000 89.512001 -129.126999 -11.685000
369 4 369 15 0.0000 93.348000 -129.151001 -11.983000
370 4 370 29 0.0000 95.814003 -130.014008 -10.707000
371 4 371 15 0.0000 97.778000 -126.936996 -9.790000
372 4 372 29 0.0000 99.092003 -124.204002 -9.303000
373 4 373 26 1.0000 100.161003 -123.959000 -5.627000
374 4 374 26 1.0000 101.490997 -127.612000 -5.522000
375 4 375 22 0.0000 105.039001 -126.403999 -5.895000
376 4 376 30 0.0000 105.218002 -124.025002 -2.931000
377 4 377 26 1.0000 102.434998 -123.010002 -0.483000
378 4 378 26 1.0000 103.566002 -120.708000 2.303000
379 4 379 15 0.0000 101.263000 -119.134003 4.729000
380 4 380 34 0.0000 103.039001 -119.321999 8.077000
381 4 381 31 0.0000 100.625999 -121.679001 9.891000
382 4 382 26 1.0000 101.028000 -123.644997 13.049000
383 4 383 31 0.0000 98.944000 -123.310997 16.188999
384 4 384 21 0.0000 99.167999 -120.329002 18.584999
385 4 385 26 1.0000 101.860001 -117.660004 17.715000
386 4 386 26 1.0000 103.332001 -117.417999 14.164000
387 4 387 18 -1.0000 104.972000 -120.339996 12.406000
388 4 388 22 0.0000 105.540001 -123.482002 14.543000
389 4 389 26 1.0000 107.931000 -126.373001 14.877000
390 4 390 26 1.0000 111.347000 -124.754997 14.527000
391 4 391 16 1.0000 109.873001 -121.410004 13.363000
392 4 392 16 1.0000 112.746002 -119.262001 12.414000
393 4 393 26 1.0000 115.346001 -118.447998 15.119000
394 4 394 31 0.0000 118.540001 -116.946999 13.430000
395 4 395 16 1.0000 120.100998 -114.733002 16.063999
396 4 396 26 1.0000 118.169998 -111.737000 17.462999
397 4 397 20 -1.0000 115.321999 -113.376999 19.374001
398 4 398 30 0.0000 111.630997 -113.292000 18.735001
399 4 399 33 0.0000 107.920998 -114.407997 19.728001
400 4 400 15 0.0000 107.560997 -110.855003 18.176001
401 4 401 24 0.0000 111.355003 -110.769997 17.575001
402 4 402 33 0.0000 112.096001 -107.110001 18.784000
403 4 403 34 0.0000 110.468002 -107.607002 21.915001
404 4 404 33 0.0000 112.518997 -110.694000 22.375999
405 4 405 26 1.0000 115.681000 -108.864998 21.544001
406 4 406 34 0.0000 115.029999 -106.120003 24.163000
407 4 407 25 0.0000 114.031998 -108.649002 26.783001
408 4 408 26 1.0000 117.457001 -110.430000 26.339001
409 4 409 21 0.0000 119.182999 -106.952003 26.850000
410 4 410 34 0.0000 117.417000 -106.302002 30.122999
411 4 411 23 0.0000 117.014999 -109.764999 31.524000
412 4 412 29 0.0000 119.498001 -112.085999 29.708000
413 4 413 18 -1.0000 118.540001 -115.084000 31.540001
414 4 414 31 0.0000 114.575996 -114.556999 31.420000
415 4 415 22 0.0000 112.188004 -115.963997 28.882999
416 4 416 24 0.0000 108.585999 -114.982002 27.981001
417 4 417 30 0.0000 105.572998 -117.036003 27.320999
418 4 418 30 0.0000 103.601997 -116.503998 24.028000
419 4 419 26 1.0000 100.553001 -115.446999 25.899000
420 4 420 15 0.0000 102.803001 -112.880997 27.531000
421 4 421 27 0.0000 104.357002 -112.091003 24.046000
422 4 422 30 0.0000 100.797997 -111.529999 22.600000
423 4 423 24 0.0000 100.224998 -109.107002 25.378000
424 4 424 27 0.0000 103.052002 -107.460999 24.625999
425 4 425 17 0.0000 102.531998 -107.269997 20.809000
426 4 426 30 0.0000 99.171997 -105.556000 21.795000
427 4 427 28 0.0000 101.019997 -103.102997 23.972000
428 4 428 34 0.0000 103.482002 -101.996002 21.436001
429 4 429 17 0.0000 100.918999 -101.774002 18.615999
430 4 430 18 -1.0000 98.476997 -99.764000 21.277000
431 4 431 34 0.0000 100.916000 -97.255997 21.885000
432 4 432 28 0.0000 101.880997 -96.928001 18.334000
433 4 433 20 -1.0000 98.528999 -96.008003 17.481001
434 4 434 16 1.0000 97.850998 -93.777000 20.263000
435 4 435 24 0.0000 100.967003 -91.824997 19.438999
436 4 436 15 0.0000 100.350998 -91.814003 15.710000
437 4 437 22 0.0000 96.742996 -90.637001 16.153000
438 4 438 20 -1.0000 97.823997 -88.012001 18.469999
439 4 439 15 0.0000 100.528000 -86.825996 15.976000
440 4 440 30 0.0000 97.928001 -86.953003 13.104000
441 4 441 16 1.0000 95.485001 -84.569000 14.804000
442 4 442 25 0.0000 99.731003 -82.954002 15.381000
443 4 443 15 0.0000 99.455002 -82.043999 12.246000
444 4 444 23 0.0000 95.843002 -81.376999 11.114000
445 4 445 33 0.0000 94.690002 -78.216003 13.434000
446 4 446 17 0.0000 98.396004 -77.231003 12.496000
447 4 447 26 1.0000 97.378998 -77.476997 8.798000
448 4 448 16 1.0000 100.514000 -79.473000 8.051000
449 4 449 30 0.0000 100.434998 -82.166000 6.048000
450 4 450 31 0.0000 103.762001 -83.773003 7.270000
451 4 451 24 0.0000 104.116997 -85.860001 10.498000
452 4 452 31 0.0000 107.719002 -85.250000 11.448000
453 4 453 30 0.0000 109.689003 -86.277000 14.484000
454 4 454 16 1.0000 108.445000 -83.124001 15.915000
455 4 455 20 -1.0000 104.830002 -84.167000 15.940000
456 4 456 24 0.0000 105.848999 -87.526001 17.339001
457 4 457 21 0.0000 107.536003 -85.703003 19.993999
458 4 458 31 0.0000 105.042000 -83.578003 21.233000
459 4 459 15 0.0000 102.401001 -86.652000 20.858000
460 4 460 34 0.0000 104.524002 -88.352997 23.176001
461 4 461 16 1.0000 104.372002 -85.584999 25.610001
462 4 462 25 0.0000 100.776001 -85.458000 25.403999
463 4 463 25 0.0000 100.307999 -89.136002 25.837999
464 4 464 25 0.0000 102.872002 -90.329002 28.325001
465 4 465 29 0.0000 102.991997 -89.584000 31.964001
466 4 466 22 0.0000 105.764000 -87.496002 33.522999
467 4 467 20 -1.0000 108.822998 -89.402000 33.770000
468 4 468 25 0.0000 108.057999 -91.916000 30.997000
469 4 469 15 0.0000 107.607002 -89.015999 28.396999
470 4 470 26 1.0000 110.902000 -87.278999 29.770000
471 4 471 23 0.0000 113.247002 -91.064003 30.223000
472 4 472 15 0.0000 109.973000 -91.700996 25.628000
473 4 473 34 0.0000 111.573997 -87.413002 24.250000
474 4 474 30 0.0000 116.169998 -87.132004 25.291000
475 4 475 20 -1.0000 116.031998 -91.806999 23.370001
476 4 476 22 0.0000 113.509003 -90.569000 20.709999
477 4 477 31 0.0000 115.771004 -87.355003 20.131001
478 4 478 26 1.0000 118.926003 -89.428001 20.562000
479 4 479 15 0.0000 117.945999 -91.825996 17.874001
480 4 480 34 0.0000 117.003998 -89.120003 15.439000
481 4 481 31 0.0000 119.997002 -87.444000 15.783000
482 4 482 26 1.0000 122.149002 -90.504997 15.396000
483 4 483 33 0.0000 120.318001 -91.468002 12.500000
484 4 484 31 0.0000 120.921997 -88.017998 10.819000
485 4 485 30 0.0000 124.616997 -88.141998 11.756000
486 4 486 15 0.0000 125.189003 -90.920998 9.182000
487 4 487 26 1.0000 125.294998 -89.302002 6.600000
488 5 488 15 0.0000 100.867996 -134.192993 47.373001
489 5 489 16 1.0000 101.153000 -130.651001 48.553001
490 5 490 31 0.0000 97.931999 -131.365005 50.644001
491 5 491 26 1.0000 98.501999 -135.149002 50.296001
492 5 492 21 0.0000 96.012001 -138.173004 50.285000
493 5 493 31 0.0000 96.473999 -141.675995 49.181000
494 5 494 15 0.0000 98.764999 -143.264008 51.664001
495 5 495 16 1.0000 98.042000 -140.455002 54.271000
496 5 496 26 1.0000 94.453003 -141.645996 54.882999
497 5 497 30 0.0000 94.041000 -145.317001 55.980000
498 5 498 31 0.0000 91.672997 -147.328995 53.662998
499 5 499 22 0.0000 88.839996 -144.863007 52.594002
500 5 500 22 0.0000 87.735001 -148.522003 52.015999
501 5 501 26 1.0000 89.238998 -150.750000 49.432999
502 5 502 15 0.0000 89.396004 -148.246994 46.549999
503 5 503 29 0.0000 86.353996 -147.237000 44.393002
504 5 504 16 1.0000 83.139000 -144.882004 44.386002
505 5 505 26 1.0000 81.321999 -145.453003 47.490002
506 5 506 21 0.0000 80.990997 -142.970001 50.362999
507 5 507 25 0.0000 77.776001 -144.841995 51.000000
508 5 508 15 0.0000 75.971001 -147.339005 53.313000
509 5 509 31 0.0000 76.267998 -148.501999 56.861000
510 5 510 26 1.0000 73.194000 -148.639999 59.217999
511 5 511 15 0.0000 74.384003 -149.507996 62.863998
512 5 512 15 0.0000 74.587997 -147.789001 66.286003
513 5 513 16 1.0000 71.410004 -149.182007 67.853996
514 5 514 26 1.0000 70.186996 -148.688995 71.292999
515 5 515 30 0.0000 70.204002 -144.923004 70.883003
516 5 516 15 0.0000 73.672997 -143.822998 71.954002
517 5 517 29 0.0000 73.680000 -144.845993 75.681000
518 5 518 15 0.0000 70.450996 -142.975998 76.236000
519 5 519 31 0.0000 71.477997 -139.598007 74.906998
520 5 520 22 0.0000 71.237000 -138.363007 71.384003
521 5 521 22 0.0000 74.478996 -137.074005 69.829002
522 5 522 34 0.0000 76.137001 -138.156998 66.456001
523 5 523 26 1.0000 77.309998 -134.988007 64.658997
524 5 524 26 1.0000 77.996002 -131.541000 66.258003
525 5 525 29 0.0000 79.517998 -128.712997 64.097000
526 5 526 23 0.0000 80.962997 -125.894997 66.415001
527 5 527 16 1.0000 82.013000 -122.470001 64.665001
528 5 528 33 0.0000 85.399002 -121.353996 63.296001
529 5 529 16 1.0000 84.905998 -117.698997 62.827999
530 5 530 29 0.0000 82.671997 -116.318001 59.902000
531 5 531 22 0.0000 84.566002 -113.880997 57.799000
532 5 532 31 0.0000 87.698997 -115.975998 58.337002
533 5 533 34 0.0000 87.183998 -118.181000 55.284000
534 5 534 15 0.0000 85.852997 -115.209000 53.257000
535 5 535 25 0.0000 89.206001 -113.386002 53.928001
536 5 536 16 1.0000 91.002998 -116.671997 53.021000
537 5 537 20 -1.0000 89.308998 -116.763000 49.694000
538 5 538 24 0.0000 89.960999 -113.113998 48.897999
539 5 539 16 1.0000 93.694000 -113.966003 49.416000
540 5 540 16 1.0000 93.169998 -116.147003 47.111000
541 5 541 33 0.0000 91.646004 -115.405998 44.351002
542 5 542 21 0.0000 93.669998 -112.264000 44.299999
543 5 543 26 1.0000 96.800003 -114.454002 44.028000
544 5 544 30 0.0000 95.480003 -116.415001 41.058998
545 5 545 31 0.0000 94.440002 -115.519997 37.570999
546 5 546 20 -1.0000 92.264000 -118.080002 36.234001
547 5 547 25 0.0000 88.766998 -117.316002 34.986000
548 5 548 25 0.0000 86.112000 -117.637001 37.714001
549 5 549 24 0.0000 82.955002 -118.257004 35.758999
550 5 550 16 1.0000 82.577003 -121.931000 34.334999
551 5 551 26 1.0000 83.459999 -121.990997 30.601000
552 5 552 25 0.0000 80.644997 -123.737000 28.959000
553 5 553 29 0.0000 77.926003 -121.912003 30.941000
554 5 554 28 0.0000 79.508003 -118.589996 29.927000
555 5 555 21 0.0000 79.163002 -120.094002 26.533001
556 5 556 16 1.0000 75.925003 -120.578003 26.230000
557 5 557 25 0.0000 75.179001 -117.087997 27.601999
558 5 558 34 0.0000 77.254997 -115.471001 24.896999
559 5 559 16 1.0000 75.551003 -117.591003 22.231001
560 5 560 20 -1.0000 72.091003 -116.820999 23.566999
561 5 561 24 0.0000 72.640999 -113.109001 23.650999
562 5 562 15 0.0000 74.296997 -113.028999 20.253000
563 5 563 21 0.0000 71.532997 -115.171997 18.788000
564 5 564 18 -1.0000 69.000000 -112.580002 19.907000
565 5 565 28 0.0000 70.905998 -109.987000 17.889000
566 5 566 26 1.0000 71.745003 -112.248001 14.747000
567 5 567 31 0.0000 70.649002 -115.680000 14.009000
568 5 568 18 -1.0000 72.950996 -118.124001 12.397000